
# Re-equilibrium

thermo 	500
thermo_style custom step c_myCTtemp c_myWPtemp press etotal fmax fnorm

run 40000 # 20 ps
No /omp style for force computation currently active
WARNING: One or more atoms are time integrated more than once (../modify_cuda.cpp:225)
Memory usage per processor = 25.0379 Mbytes
Step myCTtemp myWPtemp Press TotEng Fmax Fnorm 
       0    312.80674    373.52252   -2624.4589     -1029047     7.741091    760.46649 
WARNING: # CUDA: You asked for a Verlet integration using Cuda, but several fixes have not yet been ported to Cuda.
This can cause a severe speed penalty due to frequent data synchronization between host and GPU. (../verlet_cuda.cpp:629)
     500    317.07229     375.6158    26049.105   -995309.95    4098.4225    15146.099 
    1000    323.82025    375.93968    27744.108   -995325.15    4098.4225     15146.11 
    1500    313.70826    378.46082     28768.53   -995329.62    4098.4225    15146.135 
    2000    311.88488    375.01429    30754.845   -995328.82    4098.4225    15146.289 
    2500     312.6959    377.25223    28430.211      -995332    4098.4225    15146.155 
    3000    316.90539    378.38901    28486.921   -995337.28    4098.4225    15146.125 
    3500    310.88163    375.17947    26337.979    -995334.6    4098.4225    15146.076 
    4000    312.70913    374.00754    24834.732   -995342.31    4098.4225    15145.995 
    4500    308.84222    373.88026    25599.506   -995338.86    4098.4225    15146.059 
    5000     312.6284    375.57266    25683.548    -995329.6    4098.4225    15146.018 
    5500    311.77463    375.69873     27989.11   -995325.84    4098.4225    15146.116 
    6000    311.32753    374.84738    29053.986    -995342.4    4098.4225    15146.268 
    6500    311.31681    375.92964    30129.962   -995350.64    4098.4225    15146.254 
    7000    312.70703    375.59346    29636.464    -995338.2    4098.4225    15146.323 
    7500    304.83619    374.93351    27076.751   -995348.29    4098.4225    15146.118 
    8000    309.10353    375.49982    25939.755    -995341.1    4098.4225    15146.084 
    8500    306.23569    374.43096    24256.595   -995333.38    4098.4225    15145.968 
    9000    305.86257    373.21534    25573.489   -995339.99    4098.4225    15146.158 
    9500    309.48191    376.23513    26420.253   -995352.68    4098.4225    15146.042 
   10000    303.68638    376.28724    27948.428   -995364.11    4098.4225    15146.141 
   10500    312.55098    376.39165    29647.569   -995345.92    4098.4225     15146.27 
   11000    309.02275    379.92132    29068.809   -995334.46    4098.4225    15146.138 
   11500    309.37133    376.41483    28912.806   -995326.75    4098.4225    15146.282 
   12000    309.44377    376.82975    27374.444   -995320.06    4098.4225    15146.144 
   12500    306.16814    374.79992      25865.7   -995319.54    4098.4225     15146.13 
   13000     309.2146     373.5161    24581.224   -995322.32    4098.4225    15146.051 
   13500    310.01783    374.28112     24944.64   -995317.95    4098.4225    15146.106 
   14000    308.30483    376.78712    26191.983   -995336.69    4098.4225    15146.103 
   14500    307.22153    374.72991    28650.434   -995333.21    4098.4225     15146.35 
   15000    308.10634    378.00827    29731.364   -995328.03    4098.4225    15146.302 
   15500    309.56162    378.75134    30308.028   -995337.12    4098.4225    15146.222 
   16000    303.67199    376.99678    28152.389   -995341.59    4098.4225    15146.193 
   16500    303.31569    377.28339    27375.734   -995332.02    4098.4225    15146.142 
   17000    303.10765    375.08541    25238.229   -995327.12    4098.4225    15146.019 
   17500    310.31696    374.59109    24198.707   -995319.05    4098.4225    15146.069 
   18000    314.68303    377.19672    25120.817    -995325.9    4098.4225     15145.99 
   18500    306.75034    376.24915    25682.804   -995343.16    4098.4225    15146.065 
   19000    310.80107    377.26841    29416.508   -995343.97    4098.4225    15146.253 
   19500    311.19161    377.82462    29679.026   -995357.97    4098.4225    15146.199 
   20000    304.58741    376.49707    29746.346   -995337.68    4098.4225    15146.346 
   20500    305.41348    377.48779    29454.717   -995348.58    4098.4225    15146.302 
   21000    305.37694    375.88451    26316.544   -995338.82    4098.4225    15146.171 
   21500    307.10691     375.6163    25436.877   -995353.59    4098.4225    15146.015 
   22000      304.004    374.50255    23823.932   -995343.98    4098.4225    15145.962 
   22500    308.02429    373.99328    25643.157   -995333.87    4098.4225    15146.118 
   23000    302.67236    377.27002    26414.246   -995338.38    4098.4225    15146.092 
   23500    304.35762    375.49287    28657.054   -995341.39    4098.4225    15146.344 
   24000    305.00932    378.01016    30951.853   -995352.37    4098.4225    15146.283 
   24500    307.13811    375.65755    29425.914   -995344.92    4098.4225    15146.308 
   25000     310.6899    375.04695    28636.145   -995357.62    4098.4225    15146.197 
   25500    305.50484    373.82411    26365.704   -995345.34    4098.4225     15146.15 
   26000     303.3321    374.96013      25009.9   -995351.03    4098.4225    15146.053 
   26500    301.23344    376.21122    24475.059   -995340.36    4098.4225    15145.983 
   27000    300.31558     377.1119    25642.484   -995333.06    4098.4225    15146.071 
   27500     299.4216     375.2378     26876.91   -995345.52    4098.4225    15146.135 
   28000     302.3228    378.12751    28702.372   -995348.22    4098.4225    15146.234 
   28500    306.85844     377.2836    30703.814   -995348.59    4098.4225    15146.341 
   29000    305.74366    375.50479    29281.413   -995355.39    4098.4225    15146.263 
   29500    303.52383    376.21971    27443.807   -995338.22    4098.4225    15146.199 
   30000    308.01361    377.28841    26118.346   -995351.49    4098.4225    15146.029 
   30500    302.29851    374.75318    25097.536    -995349.4    4098.4225    15146.085 
   31000    306.53153    375.96655    24806.369   -995347.88    4098.4225    15146.003 
   31500    302.02966    377.87038    26384.174   -995353.24    4098.4225    15146.111 
   32000    306.78257    376.89402    27505.441   -995351.25    4098.4225    15146.197 
   32500    302.68695    376.83712    28942.619   -995357.26    4098.4225    15146.284 
   33000    301.32318    376.17107    29485.158   -995352.06    4098.4225    15146.326 
   33500     300.0714    377.74126    29061.111   -995351.14    4098.4225    15146.272 
   34000    303.37731    377.11962    27534.489   -995351.73    4098.4225    15146.084 
   34500     299.9789    378.18588    25840.873   -995348.16    4098.4225    15146.005 
   35000    304.80962    374.58325    25200.982   -995357.67    4098.4225    15146.036 
   35500    302.09857    375.08974    24745.582   -995352.02    4098.4225    15145.996 
   36000    303.58102    376.32707     26226.05   -995337.33    4098.4225    15146.129 
   36500    307.94239    377.63971    27704.356   -995322.32    4098.4225    15146.174 
   37000    306.19833    378.44519    29155.156   -995332.47    4098.4225    15146.289 
   37500    306.89373    378.42466    30091.155   -995338.84    4098.4225    15146.401 
   38000    305.73001    377.05512    28847.193   -995321.72    4098.4225    15146.329 
   38500    303.94912      378.191     27830.66   -995351.34    4098.4225    15146.187 
   39000    307.09131     376.0865    25508.338   -995337.13    4098.4225    15146.068 
   39500     305.5579      375.377     24263.75   -995340.03    4098.4225    15145.978 
   40000    310.64213    374.34524    24937.555   -995338.31    4098.4225    15146.047 
Loop time of 11892.4 on 2 procs for 40000 steps with 163876 atoms

Pair  time (%) = 2604.3 (21.8989)
Neigh time (%) = 80.3662 (0.675779)
Comm  time (%) = 1129.17 (9.49494)
Outpt time (%) = 1.31025 (0.0110176)
Other time (%) = 8077.23 (67.9194)

Nlocal:    81938 ave 81938 max 81938 min
Histogram: 2 0 0 0 0 0 0 0 0 0
Nghost:    34867 ave 35286 max 34448 min
Histogram: 1 0 0 0 0 0 0 0 0 1
Neighs:    0 ave 0 max 0 min
Histogram: 2 0 0 0 0 0 0 0 0 0
FullNghs:  4.01922e+06 ave 4.36991e+06 max 3.66854e+06 min
Histogram: 1 0 0 0 0 0 0 0 0 1

Total # of neighbors = 8038450
Ave neighs/atom = 49.052
Neighbor list builds = 1333
Dangerous builds = 0

print "Complete re-equilibrium"
Complete re-equilibrium

# start cutting

log ${respath}/log_files/cut_sic_cut.log
log eq_fix2_3.0x100_m_s-1_Groove1T1_SiC_EA/log_files/cut_sic_cut.log
