ITEM: TIMESTEP
0
ITEM: NUMBER OF NODES
16
ITEM: BOX BOUNDS
-0.0323169 323.134
-0.00821494 82.1412
0 78.6006
ITEM: NODES
1 1 -0.0323169 -0.00821494 0
2 1 161.551 -0.00821494 0
3 1 161.551 82.1412 0
4 1 -0.0323169 82.1412 0
5 1 -0.0323169 -0.00821494 78.6006
6 1 161.551 -0.00821494 78.6006
7 1 161.551 82.1412 78.6006
8 1 -0.0323169 82.1412 78.6006
9 1 161.551 -0.00821494 0
10 1 323.134 -0.00821494 0
11 1 323.134 82.1412 0
12 1 161.551 82.1412 0
13 1 161.551 -0.00821494 78.6006
14 1 323.134 -0.00821494 78.6006
15 1 323.134 82.1412 78.6006
16 1 161.551 82.1412 78.6006
ITEM: TIMESTEP
0
ITEM: NUMBER OF CUBES
2
ITEM: CUBES
1 1 1 2 3 4 5 6 7 8
2 1 9 10 11 12 13 14 15 16
ITEM: TIMESTEP
30
ITEM: NUMBER OF NODES
16
ITEM: BOX BOUNDS
-0.0323169 323.134
-0.00821494 82.1412
0 78.6006
ITEM: NODES
1 1 -0.0323169 -0.00821494 0
2 1 162.627 -0.00821494 0
3 1 162.627 82.1412 0
4 1 -0.0323169 82.1412 0
5 1 -0.0323169 -0.00821494 78.6006
6 1 162.627 -0.00821494 78.6006
7 1 162.627 82.1412 78.6006
8 1 -0.0323169 82.1412 78.6006
9 1 162.627 -0.00821494 0
10 1 323.134 -0.00821494 0
11 1 323.134 82.1412 0
12 1 162.627 82.1412 0
13 1 162.627 -0.00821494 78.6006
14 1 323.134 -0.00821494 78.6006
15 1 323.134 82.1412 78.6006
16 1 162.627 82.1412 78.6006
ITEM: TIMESTEP
30
ITEM: NUMBER OF CUBES
2
ITEM: CUBES
1 1 1 2 3 4 5 6 7 8
2 1 9 10 11 12 13 14 15 16
ITEM: TIMESTEP
60
ITEM: NUMBER OF NODES
16
ITEM: BOX BOUNDS
-0.0323169 323.134
-0.00821494 82.1412
0 78.6006
ITEM: NODES
1 1 -0.0323169 -0.00821494 0
2 1 162.621 -0.00821494 0
3 1 162.621 82.1412 0
4 1 -0.0323169 82.1412 0
5 1 -0.0323169 -0.00821494 78.6006
6 1 162.621 -0.00821494 78.6006
7 1 162.621 82.1412 78.6006
8 1 -0.0323169 82.1412 78.6006
9 1 162.621 -0.00821494 0
10 1 323.134 -0.00821494 0
11 1 323.134 82.1412 0
12 1 162.621 82.1412 0
13 1 162.621 -0.00821494 78.6006
14 1 323.134 -0.00821494 78.6006
15 1 323.134 82.1412 78.6006
16 1 162.621 82.1412 78.6006
ITEM: TIMESTEP
60
ITEM: NUMBER OF CUBES
2
ITEM: CUBES
1 1 1 2 3 4 5 6 7 8
2 1 9 10 11 12 13 14 15 16
ITEM: TIMESTEP
90
ITEM: NUMBER OF NODES
16
ITEM: BOX BOUNDS
-0.0323169 323.134
-0.00821494 82.1412
0 78.6006
ITEM: NODES
1 1 -0.0323169 -0.00821494 0
2 1 162.614 -0.00821494 0
3 1 162.614 82.1412 0
4 1 -0.0323169 82.1412 0
5 1 -0.0323169 -0.00821494 78.6006
6 1 162.614 -0.00821494 78.6006
7 1 162.614 82.1412 78.6006
8 1 -0.0323169 82.1412 78.6006
9 1 162.614 -0.00821494 0
10 1 323.134 -0.00821494 0
11 1 323.134 82.1412 0
12 1 162.614 82.1412 0
13 1 162.614 -0.00821494 78.6006
14 1 323.134 -0.00821494 78.6006
15 1 323.134 82.1412 78.6006
16 1 162.614 82.1412 78.6006
ITEM: TIMESTEP
90
ITEM: NUMBER OF CUBES
2
ITEM: CUBES
1 1 1 2 3 4 5 6 7 8
2 1 9 10 11 12 13 14 15 16
ITEM: TIMESTEP
120
ITEM: NUMBER OF NODES
16
ITEM: BOX BOUNDS
-0.0323169 323.134
-0.00821494 82.1412
0 78.6006
ITEM: NODES
1 1 -0.0323169 -0.00821494 0
2 1 162.605 -0.00821494 0
3 1 162.605 82.1412 0
4 1 -0.0323169 82.1412 0
5 1 -0.0323169 -0.00821494 78.6006
6 1 162.605 -0.00821494 78.6006
7 1 162.605 82.1412 78.6006
8 1 -0.0323169 82.1412 78.6006
9 1 162.605 -0.00821494 0
10 1 323.134 -0.00821494 0
11 1 323.134 82.1412 0
12 1 162.605 82.1412 0
13 1 162.605 -0.00821494 78.6006
14 1 323.134 -0.00821494 78.6006
15 1 323.134 82.1412 78.6006
16 1 162.605 82.1412 78.6006
ITEM: TIMESTEP
120
ITEM: NUMBER OF CUBES
2
ITEM: CUBES
1 1 1 2 3 4 5 6 7 8
2 1 9 10 11 12 13 14 15 16
ITEM: TIMESTEP
150
ITEM: NUMBER OF NODES
16
ITEM: BOX BOUNDS
-0.0323169 323.134
-0.00821494 82.1412
0 78.6006
ITEM: NODES
1 1 -0.0323169 -0.00821494 0
2 1 162.595 -0.00821494 0
3 1 162.595 82.1412 0
4 1 -0.0323169 82.1412 0
5 1 -0.0323169 -0.00821494 78.6006
6 1 162.595 -0.00821494 78.6006
7 1 162.595 82.1412 78.6006
8 1 -0.0323169 82.1412 78.6006
9 1 162.595 -0.00821494 0
10 1 323.134 -0.00821494 0
11 1 323.134 82.1412 0
12 1 162.595 82.1412 0
13 1 162.595 -0.00821494 78.6006
14 1 323.134 -0.00821494 78.6006
15 1 323.134 82.1412 78.6006
16 1 162.595 82.1412 78.6006
ITEM: TIMESTEP
150
ITEM: NUMBER OF CUBES
2
ITEM: CUBES
1 1 1 2 3 4 5 6 7 8
2 1 9 10 11 12 13 14 15 16
ITEM: TIMESTEP
180
ITEM: NUMBER OF NODES
16
ITEM: BOX BOUNDS
-0.0323169 323.134
-0.00821494 82.1412
0 78.6006
ITEM: NODES
1 1 -0.0323169 -0.00821494 0
2 1 162.589 -0.00821494 0
3 1 162.589 82.1412 0
4 1 -0.0323169 82.1412 0
5 1 -0.0323169 -0.00821494 78.6006
6 1 162.589 -0.00821494 78.6006
7 1 162.589 82.1412 78.6006
8 1 -0.0323169 82.1412 78.6006
9 1 162.589 -0.00821494 0
10 1 323.134 -0.00821494 0
11 1 323.134 82.1412 0
12 1 162.589 82.1412 0
13 1 162.589 -0.00821494 78.6006
14 1 323.134 -0.00821494 78.6006
15 1 323.134 82.1412 78.6006
16 1 162.589 82.1412 78.6006
ITEM: TIMESTEP
180
ITEM: NUMBER OF CUBES
2
ITEM: CUBES
1 1 1 2 3 4 5 6 7 8
2 1 9 10 11 12 13 14 15 16
ITEM: TIMESTEP
210
ITEM: NUMBER OF NODES
16
ITEM: BOX BOUNDS
-0.0323169 323.134
-0.00821494 82.1412
0 78.6006
ITEM: NODES
1 1 -0.0323169 -0.00821494 0
2 1 162.577 -0.00821494 0
3 1 162.577 82.1412 0
4 1 -0.0323169 82.1412 0
5 1 -0.0323169 -0.00821494 78.6006
6 1 162.577 -0.00821494 78.6006
7 1 162.577 82.1412 78.6006
8 1 -0.0323169 82.1412 78.6006
9 1 162.577 -0.00821494 0
10 1 323.134 -0.00821494 0
11 1 323.134 82.1412 0
12 1 162.577 82.1412 0
13 1 162.577 -0.00821494 78.6006
14 1 323.134 -0.00821494 78.6006
15 1 323.134 82.1412 78.6006
16 1 162.577 82.1412 78.6006
ITEM: TIMESTEP
210
ITEM: NUMBER OF CUBES
2
ITEM: CUBES
1 1 1 2 3 4 5 6 7 8
2 1 9 10 11 12 13 14 15 16
ITEM: TIMESTEP
240
ITEM: NUMBER OF NODES
16
ITEM: BOX BOUNDS
-0.0323169 323.134
-0.00821494 82.1412
0 78.6006
ITEM: NODES
1 1 -0.0323169 -0.00821494 0
2 1 162.571 -0.00821494 0
3 1 162.571 82.1412 0
4 1 -0.0323169 82.1412 0
5 1 -0.0323169 -0.00821494 78.6006
6 1 162.571 -0.00821494 78.6006
7 1 162.571 82.1412 78.6006
8 1 -0.0323169 82.1412 78.6006
9 1 162.571 -0.00821494 0
10 1 323.134 -0.00821494 0
11 1 323.134 82.1412 0
12 1 162.571 82.1412 0
13 1 162.571 -0.00821494 78.6006
14 1 323.134 -0.00821494 78.6006
15 1 323.134 82.1412 78.6006
16 1 162.571 82.1412 78.6006
ITEM: TIMESTEP
240
ITEM: NUMBER OF CUBES
2
ITEM: CUBES
1 1 1 2 3 4 5 6 7 8
2 1 9 10 11 12 13 14 15 16
ITEM: TIMESTEP
270
ITEM: NUMBER OF NODES
16
ITEM: BOX BOUNDS
-0.0323169 323.134
-0.00821494 82.1412
0 78.6006
ITEM: NODES
1 1 -0.0323169 -0.00821494 0
2 1 162.56 -0.00821494 0
3 1 162.56 82.1412 0
4 1 -0.0323169 82.1412 0
5 1 -0.0323169 -0.00821494 78.6006
6 1 162.56 -0.00821494 78.6006
7 1 162.56 82.1412 78.6006
8 1 -0.0323169 82.1412 78.6006
9 1 162.56 -0.00821494 0
10 1 323.134 -0.00821494 0
11 1 323.134 82.1412 0
12 1 162.56 82.1412 0
13 1 162.56 -0.00821494 78.6006
14 1 323.134 -0.00821494 78.6006
15 1 323.134 82.1412 78.6006
16 1 162.56 82.1412 78.6006
ITEM: TIMESTEP
270
ITEM: NUMBER OF CUBES
2
ITEM: CUBES
1 1 1 2 3 4 5 6 7 8
2 1 9 10 11 12 13 14 15 16
ITEM: TIMESTEP
300
ITEM: NUMBER OF NODES
16
ITEM: BOX BOUNDS
-0.0323169 323.134
-0.00821494 82.1412
0 78.6006
ITEM: NODES
1 1 -0.0323169 -0.00821494 0
2 1 162.555 -0.00821494 0
3 1 162.555 82.1412 0
4 1 -0.0323169 82.1412 0
5 1 -0.0323169 -0.00821494 78.6006
6 1 162.555 -0.00821494 78.6006
7 1 162.555 82.1412 78.6006
8 1 -0.0323169 82.1412 78.6006
9 1 162.555 -0.00821494 0
10 1 323.134 -0.00821494 0
11 1 323.134 82.1412 0
12 1 162.555 82.1412 0
13 1 162.555 -0.00821494 78.6006
14 1 323.134 -0.00821494 78.6006
15 1 323.134 82.1412 78.6006
16 1 162.555 82.1412 78.6006
ITEM: TIMESTEP
300
ITEM: NUMBER OF CUBES
2
ITEM: CUBES
1 1 1 2 3 4 5 6 7 8
2 1 9 10 11 12 13 14 15 16
ITEM: TIMESTEP
330
ITEM: NUMBER OF NODES
16
ITEM: BOX BOUNDS
-0.0323169 323.134
-0.00821494 82.1412
0 78.6006
ITEM: NODES
1 1 -0.0323169 -0.00821494 0
2 1 162.542 -0.00821494 0
3 1 162.542 82.1412 0
4 1 -0.0323169 82.1412 0
5 1 -0.0323169 -0.00821494 78.6006
6 1 162.542 -0.00821494 78.6006
7 1 162.542 82.1412 78.6006
8 1 -0.0323169 82.1412 78.6006
9 1 162.542 -0.00821494 0
10 1 323.134 -0.00821494 0
11 1 323.134 82.1412 0
12 1 162.542 82.1412 0
13 1 162.542 -0.00821494 78.6006
14 1 323.134 -0.00821494 78.6006
15 1 323.134 82.1412 78.6006
16 1 162.542 82.1412 78.6006
ITEM: TIMESTEP
330
ITEM: NUMBER OF CUBES
2
ITEM: CUBES
1 1 1 2 3 4 5 6 7 8
2 1 9 10 11 12 13 14 15 16
ITEM: TIMESTEP
360
ITEM: NUMBER OF NODES
16
ITEM: BOX BOUNDS
-0.0323169 323.134
-0.00821494 82.1412
0 78.6006
ITEM: NODES
1 1 -0.0323169 -0.00821494 0
2 1 162.542 -0.00821494 0
3 1 162.542 82.1412 0
4 1 -0.0323169 82.1412 0
5 1 -0.0323169 -0.00821494 78.6006
6 1 162.542 -0.00821494 78.6006
7 1 162.542 82.1412 78.6006
8 1 -0.0323169 82.1412 78.6006
9 1 162.542 -0.00821494 0
10 1 323.134 -0.00821494 0
11 1 323.134 82.1412 0
12 1 162.542 82.1412 0
13 1 162.542 -0.00821494 78.6006
14 1 323.134 -0.00821494 78.6006
15 1 323.134 82.1412 78.6006
16 1 162.542 82.1412 78.6006
ITEM: TIMESTEP
360
ITEM: NUMBER OF CUBES
2
ITEM: CUBES
1 1 1 2 3 4 5 6 7 8
2 1 9 10 11 12 13 14 15 16
ITEM: TIMESTEP
390
ITEM: NUMBER OF NODES
16
ITEM: BOX BOUNDS
-0.0323169 323.134
-0.00821494 82.1412
0 78.6006
ITEM: NODES
1 1 -0.0323169 -0.00821494 0
2 1 162.529 -0.00821494 0
3 1 162.529 82.1412 0
4 1 -0.0323169 82.1412 0
5 1 -0.0323169 -0.00821494 78.6006
6 1 162.529 -0.00821494 78.6006
7 1 162.529 82.1412 78.6006
8 1 -0.0323169 82.1412 78.6006
9 1 162.529 -0.00821494 0
10 1 323.134 -0.00821494 0
11 1 323.134 82.1412 0
12 1 162.529 82.1412 0
13 1 162.529 -0.00821494 78.6006
14 1 323.134 -0.00821494 78.6006
15 1 323.134 82.1412 78.6006
16 1 162.529 82.1412 78.6006
ITEM: TIMESTEP
390
ITEM: NUMBER OF CUBES
2
ITEM: CUBES
1 1 1 2 3 4 5 6 7 8
2 1 9 10 11 12 13 14 15 16
ITEM: TIMESTEP
420
ITEM: NUMBER OF NODES
16
ITEM: BOX BOUNDS
-0.0323169 323.134
-0.00821494 82.1412
0 78.6006
ITEM: NODES
1 1 -0.0323169 -0.00821494 0
2 1 162.53 -0.00821494 0
3 1 162.53 82.1412 0
4 1 -0.0323169 82.1412 0
5 1 -0.0323169 -0.00821494 78.6006
6 1 162.53 -0.00821494 78.6006
7 1 162.53 82.1412 78.6006
8 1 -0.0323169 82.1412 78.6006
9 1 162.53 -0.00821494 0
10 1 323.134 -0.00821494 0
11 1 323.134 82.1412 0
12 1 162.53 82.1412 0
13 1 162.53 -0.00821494 78.6006
14 1 323.134 -0.00821494 78.6006
15 1 323.134 82.1412 78.6006
16 1 162.53 82.1412 78.6006
ITEM: TIMESTEP
420
ITEM: NUMBER OF CUBES
2
ITEM: CUBES
1 1 1 2 3 4 5 6 7 8
2 1 9 10 11 12 13 14 15 16
ITEM: TIMESTEP
450
ITEM: NUMBER OF NODES
16
ITEM: BOX BOUNDS
-0.0323169 323.134
-0.00821494 82.1412
0 78.6006
ITEM: NODES
1 1 -0.0323169 -0.00821494 0
2 1 162.529 -0.00821494 0
3 1 162.529 82.1412 0
4 1 -0.0323169 82.1412 0
5 1 -0.0323169 -0.00821494 78.6006
6 1 162.529 -0.00821494 78.6006
7 1 162.529 82.1412 78.6006
8 1 -0.0323169 82.1412 78.6006
9 1 162.529 -0.00821494 0
10 1 323.134 -0.00821494 0
11 1 323.134 82.1412 0
12 1 162.529 82.1412 0
13 1 162.529 -0.00821494 78.6006
14 1 323.134 -0.00821494 78.6006
15 1 323.134 82.1412 78.6006
16 1 162.529 82.1412 78.6006
ITEM: TIMESTEP
450
ITEM: NUMBER OF CUBES
2
ITEM: CUBES
1 1 1 2 3 4 5 6 7 8
2 1 9 10 11 12 13 14 15 16
ITEM: TIMESTEP
480
ITEM: NUMBER OF NODES
16
ITEM: BOX BOUNDS
-0.0323169 323.134
-0.00821494 82.1412
0 78.6006
ITEM: NODES
1 1 -0.0323169 -0.00821494 0
2 1 162.525 -0.00821494 0
3 1 162.525 82.1412 0
4 1 -0.0323169 82.1412 0
5 1 -0.0323169 -0.00821494 78.6006
6 1 162.525 -0.00821494 78.6006
7 1 162.525 82.1412 78.6006
8 1 -0.0323169 82.1412 78.6006
9 1 162.525 -0.00821494 0
10 1 323.134 -0.00821494 0
11 1 323.134 82.1412 0
12 1 162.525 82.1412 0
13 1 162.525 -0.00821494 78.6006
14 1 323.134 -0.00821494 78.6006
15 1 323.134 82.1412 78.6006
16 1 162.525 82.1412 78.6006
ITEM: TIMESTEP
480
ITEM: NUMBER OF CUBES
2
ITEM: CUBES
1 1 1 2 3 4 5 6 7 8
2 1 9 10 11 12 13 14 15 16
ITEM: TIMESTEP
510
ITEM: NUMBER OF NODES
16
ITEM: BOX BOUNDS
-0.0323169 323.134
-0.00821494 82.1412
0 78.6006
ITEM: NODES
1 1 -0.0323169 -0.00821494 0
2 1 162.514 -0.00821494 0
3 1 162.514 82.1412 0
4 1 -0.0323169 82.1412 0
5 1 -0.0323169 -0.00821494 78.6006
6 1 162.514 -0.00821494 78.6006
7 1 162.514 82.1412 78.6006
8 1 -0.0323169 82.1412 78.6006
9 1 162.514 -0.00821494 0
10 1 323.134 -0.00821494 0
11 1 323.134 82.1412 0
12 1 162.514 82.1412 0
13 1 162.514 -0.00821494 78.6006
14 1 323.134 -0.00821494 78.6006
15 1 323.134 82.1412 78.6006
16 1 162.514 82.1412 78.6006
ITEM: TIMESTEP
510
ITEM: NUMBER OF CUBES
2
ITEM: CUBES
1 1 1 2 3 4 5 6 7 8
2 1 9 10 11 12 13 14 15 16
ITEM: TIMESTEP
540
ITEM: NUMBER OF NODES
16
ITEM: BOX BOUNDS
-0.0323169 323.134
-0.00821494 82.1412
0 78.6006
ITEM: NODES
1 1 -0.0323169 -0.00821494 0
2 1 162.51 -0.00821494 0
3 1 162.51 82.1412 0
4 1 -0.0323169 82.1412 0
5 1 -0.0323169 -0.00821494 78.6006
6 1 162.51 -0.00821494 78.6006
7 1 162.51 82.1412 78.6006
8 1 -0.0323169 82.1412 78.6006
9 1 162.51 -0.00821494 0
10 1 323.134 -0.00821494 0
11 1 323.134 82.1412 0
12 1 162.51 82.1412 0
13 1 162.51 -0.00821494 78.6006
14 1 323.134 -0.00821494 78.6006
15 1 323.134 82.1412 78.6006
16 1 162.51 82.1412 78.6006
ITEM: TIMESTEP
540
ITEM: NUMBER OF CUBES
2
ITEM: CUBES
1 1 1 2 3 4 5 6 7 8
2 1 9 10 11 12 13 14 15 16
ITEM: TIMESTEP
570
ITEM: NUMBER OF NODES
16
ITEM: BOX BOUNDS
-0.0323169 323.134
-0.00821494 82.1412
0 78.6006
ITEM: NODES
1 1 -0.0323169 -0.00821494 0
2 1 162.499 -0.00821494 0
3 1 162.499 82.1412 0
4 1 -0.0323169 82.1412 0
5 1 -0.0323169 -0.00821494 78.6006
6 1 162.499 -0.00821494 78.6006
7 1 162.499 82.1412 78.6006
8 1 -0.0323169 82.1412 78.6006
9 1 162.499 -0.00821494 0
10 1 323.134 -0.00821494 0
11 1 323.134 82.1412 0
12 1 162.499 82.1412 0
13 1 162.499 -0.00821494 78.6006
14 1 323.134 -0.00821494 78.6006
15 1 323.134 82.1412 78.6006
16 1 162.499 82.1412 78.6006
ITEM: TIMESTEP
570
ITEM: NUMBER OF CUBES
2
ITEM: CUBES
1 1 1 2 3 4 5 6 7 8
2 1 9 10 11 12 13 14 15 16
ITEM: TIMESTEP
600
ITEM: NUMBER OF NODES
16
ITEM: BOX BOUNDS
-0.0323169 323.134
-0.00821494 82.1412
0 78.6006
ITEM: NODES
1 1 -0.0323169 -0.00821494 0
2 1 162.489 -0.00821494 0
3 1 162.489 82.1412 0
4 1 -0.0323169 82.1412 0
5 1 -0.0323169 -0.00821494 78.6006
6 1 162.489 -0.00821494 78.6006
7 1 162.489 82.1412 78.6006
8 1 -0.0323169 82.1412 78.6006
9 1 162.489 -0.00821494 0
10 1 323.134 -0.00821494 0
11 1 323.134 82.1412 0
12 1 162.489 82.1412 0
13 1 162.489 -0.00821494 78.6006
14 1 323.134 -0.00821494 78.6006
15 1 323.134 82.1412 78.6006
16 1 162.489 82.1412 78.6006
ITEM: TIMESTEP
600
ITEM: NUMBER OF CUBES
2
ITEM: CUBES
1 1 1 2 3 4 5 6 7 8
2 1 9 10 11 12 13 14 15 16
ITEM: TIMESTEP
630
ITEM: NUMBER OF NODES
16
ITEM: BOX BOUNDS
-0.0323169 323.134
-0.00821494 82.1412
0 78.6006
ITEM: NODES
1 1 -0.0323169 -0.00821494 0
2 1 162.485 -0.00821494 0
3 1 162.485 82.1412 0
4 1 -0.0323169 82.1412 0
5 1 -0.0323169 -0.00821494 78.6006
6 1 162.485 -0.00821494 78.6006
7 1 162.485 82.1412 78.6006
8 1 -0.0323169 82.1412 78.6006
9 1 162.485 -0.00821494 0
10 1 323.134 -0.00821494 0
11 1 323.134 82.1412 0
12 1 162.485 82.1412 0
13 1 162.485 -0.00821494 78.6006
14 1 323.134 -0.00821494 78.6006
15 1 323.134 82.1412 78.6006
16 1 162.485 82.1412 78.6006
ITEM: TIMESTEP
630
ITEM: NUMBER OF CUBES
2
ITEM: CUBES
1 1 1 2 3 4 5 6 7 8
2 1 9 10 11 12 13 14 15 16
ITEM: TIMESTEP
660
ITEM: NUMBER OF NODES
16
ITEM: BOX BOUNDS
-0.0323169 323.134
-0.00821494 82.1412
0 78.6006
ITEM: NODES
1 1 -0.0323169 -0.00821494 0
2 1 162.469 -0.00821494 0
3 1 162.469 82.1412 0
4 1 -0.0323169 82.1412 0
5 1 -0.0323169 -0.00821494 78.6006
6 1 162.469 -0.00821494 78.6006
7 1 162.469 82.1412 78.6006
8 1 -0.0323169 82.1412 78.6006
9 1 162.469 -0.00821494 0
10 1 323.134 -0.00821494 0
11 1 323.134 82.1412 0
12 1 162.469 82.1412 0
13 1 162.469 -0.00821494 78.6006
14 1 323.134 -0.00821494 78.6006
15 1 323.134 82.1412 78.6006
16 1 162.469 82.1412 78.6006
ITEM: TIMESTEP
660
ITEM: NUMBER OF CUBES
2
ITEM: CUBES
1 1 1 2 3 4 5 6 7 8
2 1 9 10 11 12 13 14 15 16
ITEM: TIMESTEP
690
ITEM: NUMBER OF NODES
16
ITEM: BOX BOUNDS
-0.0323169 323.134
-0.00821494 82.1412
0 78.6006
ITEM: NODES
1 1 -0.0323169 -0.00821494 0
2 1 162.459 -0.00821494 0
3 1 162.459 82.1412 0
4 1 -0.0323169 82.1412 0
5 1 -0.0323169 -0.00821494 78.6006
6 1 162.459 -0.00821494 78.6006
7 1 162.459 82.1412 78.6006
8 1 -0.0323169 82.1412 78.6006
9 1 162.459 -0.00821494 0
10 1 323.134 -0.00821494 0
11 1 323.134 82.1412 0
12 1 162.459 82.1412 0
13 1 162.459 -0.00821494 78.6006
14 1 323.134 -0.00821494 78.6006
15 1 323.134 82.1412 78.6006
16 1 162.459 82.1412 78.6006
ITEM: TIMESTEP
690
ITEM: NUMBER OF CUBES
2
ITEM: CUBES
1 1 1 2 3 4 5 6 7 8
2 1 9 10 11 12 13 14 15 16
ITEM: TIMESTEP
720
ITEM: NUMBER OF NODES
16
ITEM: BOX BOUNDS
-0.0323169 323.134
-0.00821494 82.1412
0 78.6006
ITEM: NODES
1 1 -0.0323169 -0.00821494 0
2 1 162.447 -0.00821494 0
3 1 162.447 82.1412 0
4 1 -0.0323169 82.1412 0
5 1 -0.0323169 -0.00821494 78.6006
6 1 162.447 -0.00821494 78.6006
7 1 162.447 82.1412 78.6006
8 1 -0.0323169 82.1412 78.6006
9 1 162.447 -0.00821494 0
10 1 323.134 -0.00821494 0
11 1 323.134 82.1412 0
12 1 162.447 82.1412 0
13 1 162.447 -0.00821494 78.6006
14 1 323.134 -0.00821494 78.6006
15 1 323.134 82.1412 78.6006
16 1 162.447 82.1412 78.6006
ITEM: TIMESTEP
720
ITEM: NUMBER OF CUBES
2
ITEM: CUBES
1 1 1 2 3 4 5 6 7 8
2 1 9 10 11 12 13 14 15 16
ITEM: TIMESTEP
750
ITEM: NUMBER OF NODES
16
ITEM: BOX BOUNDS
-0.0323169 323.134
-0.00821494 82.1412
0 78.6006
ITEM: NODES
1 1 -0.0323169 -0.00821494 0
2 1 162.434 -0.00821494 0
3 1 162.434 82.1412 0
4 1 -0.0323169 82.1412 0
5 1 -0.0323169 -0.00821494 78.6006
6 1 162.434 -0.00821494 78.6006
7 1 162.434 82.1412 78.6006
8 1 -0.0323169 82.1412 78.6006
9 1 162.434 -0.00821494 0
10 1 323.134 -0.00821494 0
11 1 323.134 82.1412 0
12 1 162.434 82.1412 0
13 1 162.434 -0.00821494 78.6006
14 1 323.134 -0.00821494 78.6006
15 1 323.134 82.1412 78.6006
16 1 162.434 82.1412 78.6006
ITEM: TIMESTEP
750
ITEM: NUMBER OF CUBES
2
ITEM: CUBES
1 1 1 2 3 4 5 6 7 8
2 1 9 10 11 12 13 14 15 16
ITEM: TIMESTEP
780
ITEM: NUMBER OF NODES
16
ITEM: BOX BOUNDS
-0.0323169 323.134
-0.00821494 82.1412
0 78.6006
ITEM: NODES
1 1 -0.0323169 -0.00821494 0
2 1 162.419 -0.00821494 0
3 1 162.419 82.1412 0
4 1 -0.0323169 82.1412 0
5 1 -0.0323169 -0.00821494 78.6006
6 1 162.419 -0.00821494 78.6006
7 1 162.419 82.1412 78.6006
8 1 -0.0323169 82.1412 78.6006
9 1 162.419 -0.00821494 0
10 1 323.134 -0.00821494 0
11 1 323.134 82.1412 0
12 1 162.419 82.1412 0
13 1 162.419 -0.00821494 78.6006
14 1 323.134 -0.00821494 78.6006
15 1 323.134 82.1412 78.6006
16 1 162.419 82.1412 78.6006
ITEM: TIMESTEP
780
ITEM: NUMBER OF CUBES
2
ITEM: CUBES
1 1 1 2 3 4 5 6 7 8
2 1 9 10 11 12 13 14 15 16
ITEM: TIMESTEP
810
ITEM: NUMBER OF NODES
16
ITEM: BOX BOUNDS
-0.0323169 323.134
-0.00821494 82.1412
0 78.6006
ITEM: NODES
1 1 -0.0323169 -0.00821494 0
2 1 162.403 -0.00821494 0
3 1 162.403 82.1412 0
4 1 -0.0323169 82.1412 0
5 1 -0.0323169 -0.00821494 78.6006
6 1 162.403 -0.00821494 78.6006
7 1 162.403 82.1412 78.6006
8 1 -0.0323169 82.1412 78.6006
9 1 162.403 -0.00821494 0
10 1 323.134 -0.00821494 0
11 1 323.134 82.1412 0
12 1 162.403 82.1412 0
13 1 162.403 -0.00821494 78.6006
14 1 323.134 -0.00821494 78.6006
15 1 323.134 82.1412 78.6006
16 1 162.403 82.1412 78.6006
ITEM: TIMESTEP
810
ITEM: NUMBER OF CUBES
2
ITEM: CUBES
1 1 1 2 3 4 5 6 7 8
2 1 9 10 11 12 13 14 15 16
ITEM: TIMESTEP
840
ITEM: NUMBER OF NODES
16
ITEM: BOX BOUNDS
-0.0323169 323.134
-0.00821494 82.1412
0 78.6006
ITEM: NODES
1 1 -0.0323169 -0.00821494 0
2 1 162.401 -0.00821494 0
3 1 162.401 82.1412 0
4 1 -0.0323169 82.1412 0
5 1 -0.0323169 -0.00821494 78.6006
6 1 162.401 -0.00821494 78.6006
7 1 162.401 82.1412 78.6006
8 1 -0.0323169 82.1412 78.6006
9 1 162.401 -0.00821494 0
10 1 323.134 -0.00821494 0
11 1 323.134 82.1412 0
12 1 162.401 82.1412 0
13 1 162.401 -0.00821494 78.6006
14 1 323.134 -0.00821494 78.6006
15 1 323.134 82.1412 78.6006
16 1 162.401 82.1412 78.6006
ITEM: TIMESTEP
840
ITEM: NUMBER OF CUBES
2
ITEM: CUBES
1 1 1 2 3 4 5 6 7 8
2 1 9 10 11 12 13 14 15 16
ITEM: TIMESTEP
870
ITEM: NUMBER OF NODES
16
ITEM: BOX BOUNDS
-0.0323169 323.134
-0.00821494 82.1412
0 78.6006
ITEM: NODES
1 1 -0.0323169 -0.00821494 0
2 1 162.381 -0.00821494 0
3 1 162.381 82.1412 0
4 1 -0.0323169 82.1412 0
5 1 -0.0323169 -0.00821494 78.6006
6 1 162.381 -0.00821494 78.6006
7 1 162.381 82.1412 78.6006
8 1 -0.0323169 82.1412 78.6006
9 1 162.381 -0.00821494 0
10 1 323.134 -0.00821494 0
11 1 323.134 82.1412 0
12 1 162.381 82.1412 0
13 1 162.381 -0.00821494 78.6006
14 1 323.134 -0.00821494 78.6006
15 1 323.134 82.1412 78.6006
16 1 162.381 82.1412 78.6006
ITEM: TIMESTEP
870
ITEM: NUMBER OF CUBES
2
ITEM: CUBES
1 1 1 2 3 4 5 6 7 8
2 1 9 10 11 12 13 14 15 16
ITEM: TIMESTEP
900
ITEM: NUMBER OF NODES
16
ITEM: BOX BOUNDS
-0.0323169 323.134
-0.00821494 82.1412
0 78.6006
ITEM: NODES
1 1 -0.0323169 -0.00821494 0
2 1 162.377 -0.00821494 0
3 1 162.377 82.1412 0
4 1 -0.0323169 82.1412 0
5 1 -0.0323169 -0.00821494 78.6006
6 1 162.377 -0.00821494 78.6006
7 1 162.377 82.1412 78.6006
8 1 -0.0323169 82.1412 78.6006
9 1 162.377 -0.00821494 0
10 1 323.134 -0.00821494 0
11 1 323.134 82.1412 0
12 1 162.377 82.1412 0
13 1 162.377 -0.00821494 78.6006
14 1 323.134 -0.00821494 78.6006
15 1 323.134 82.1412 78.6006
16 1 162.377 82.1412 78.6006
ITEM: TIMESTEP
900
ITEM: NUMBER OF CUBES
2
ITEM: CUBES
1 1 1 2 3 4 5 6 7 8
2 1 9 10 11 12 13 14 15 16
ITEM: TIMESTEP
930
ITEM: NUMBER OF NODES
16
ITEM: BOX BOUNDS
-0.0323169 323.134
-0.00821494 82.1412
0 78.6006
ITEM: NODES
1 1 -0.0323169 -0.00821494 0
2 1 162.36 -0.00821494 0
3 1 162.36 82.1412 0
4 1 -0.0323169 82.1412 0
5 1 -0.0323169 -0.00821494 78.6006
6 1 162.36 -0.00821494 78.6006
7 1 162.36 82.1412 78.6006
8 1 -0.0323169 82.1412 78.6006
9 1 162.36 -0.00821494 0
10 1 323.134 -0.00821494 0
11 1 323.134 82.1412 0
12 1 162.36 82.1412 0
13 1 162.36 -0.00821494 78.6006
14 1 323.134 -0.00821494 78.6006
15 1 323.134 82.1412 78.6006
16 1 162.36 82.1412 78.6006
ITEM: TIMESTEP
930
ITEM: NUMBER OF CUBES
2
ITEM: CUBES
1 1 1 2 3 4 5 6 7 8
2 1 9 10 11 12 13 14 15 16
ITEM: TIMESTEP
960
ITEM: NUMBER OF NODES
16
ITEM: BOX BOUNDS
-0.0323169 323.134
-0.00821494 82.1412
0 78.6006
ITEM: NODES
1 1 -0.0323169 -0.00821494 0
2 1 162.357 -0.00821494 0
3 1 162.357 82.1412 0
4 1 -0.0323169 82.1412 0
5 1 -0.0323169 -0.00821494 78.6006
6 1 162.357 -0.00821494 78.6006
7 1 162.357 82.1412 78.6006
8 1 -0.0323169 82.1412 78.6006
9 1 162.357 -0.00821494 0
10 1 323.134 -0.00821494 0
11 1 323.134 82.1412 0
12 1 162.357 82.1412 0
13 1 162.357 -0.00821494 78.6006
14 1 323.134 -0.00821494 78.6006
15 1 323.134 82.1412 78.6006
16 1 162.357 82.1412 78.6006
ITEM: TIMESTEP
960
ITEM: NUMBER OF CUBES
2
ITEM: CUBES
1 1 1 2 3 4 5 6 7 8
2 1 9 10 11 12 13 14 15 16
ITEM: TIMESTEP
990
ITEM: NUMBER OF NODES
16
ITEM: BOX BOUNDS
-0.0323169 323.134
-0.00821494 82.1412
0 78.6006
ITEM: NODES
1 1 -0.0323169 -0.00821494 0
2 1 162.355 -0.00821494 0
3 1 162.355 82.1412 0
4 1 -0.0323169 82.1412 0
5 1 -0.0323169 -0.00821494 78.6006
6 1 162.355 -0.00821494 78.6006
7 1 162.355 82.1412 78.6006
8 1 -0.0323169 82.1412 78.6006
9 1 162.355 -0.00821494 0
10 1 323.134 -0.00821494 0
11 1 323.134 82.1412 0
12 1 162.355 82.1412 0
13 1 162.355 -0.00821494 78.6006
14 1 323.134 -0.00821494 78.6006
15 1 323.134 82.1412 78.6006
16 1 162.355 82.1412 78.6006
ITEM: TIMESTEP
990
ITEM: NUMBER OF CUBES
2
ITEM: CUBES
1 1 1 2 3 4 5 6 7 8
2 1 9 10 11 12 13 14 15 16
ITEM: TIMESTEP
1020
ITEM: NUMBER OF NODES
16
ITEM: BOX BOUNDS
-0.0323169 323.134
-0.00821494 82.1412
0 78.6006
ITEM: NODES
1 1 -0.0323169 -0.00821494 0
2 1 162.346 -0.00821494 0
3 1 162.346 82.1412 0
4 1 -0.0323169 82.1412 0
5 1 -0.0323169 -0.00821494 78.6006
6 1 162.346 -0.00821494 78.6006
7 1 162.346 82.1412 78.6006
8 1 -0.0323169 82.1412 78.6006
9 1 162.346 -0.00821494 0
10 1 323.134 -0.00821494 0
11 1 323.134 82.1412 0
12 1 162.346 82.1412 0
13 1 162.346 -0.00821494 78.6006
14 1 323.134 -0.00821494 78.6006
15 1 323.134 82.1412 78.6006
16 1 162.346 82.1412 78.6006
ITEM: TIMESTEP
1020
ITEM: NUMBER OF CUBES
2
ITEM: CUBES
1 1 1 2 3 4 5 6 7 8
2 1 9 10 11 12 13 14 15 16
ITEM: TIMESTEP
1050
ITEM: NUMBER OF NODES
16
ITEM: BOX BOUNDS
-0.0323169 323.134
-0.00821494 82.1412
0 78.6006
ITEM: NODES
1 1 -0.0323169 -0.00821494 0
2 1 162.338 -0.00821494 0
3 1 162.338 82.1412 0
4 1 -0.0323169 82.1412 0
5 1 -0.0323169 -0.00821494 78.6006
6 1 162.338 -0.00821494 78.6006
7 1 162.338 82.1412 78.6006
8 1 -0.0323169 82.1412 78.6006
9 1 162.338 -0.00821494 0
10 1 323.134 -0.00821494 0
11 1 323.134 82.1412 0
12 1 162.338 82.1412 0
13 1 162.338 -0.00821494 78.6006
14 1 323.134 -0.00821494 78.6006
15 1 323.134 82.1412 78.6006
16 1 162.338 82.1412 78.6006
ITEM: TIMESTEP
1050
ITEM: NUMBER OF CUBES
2
ITEM: CUBES
1 1 1 2 3 4 5 6 7 8
2 1 9 10 11 12 13 14 15 16
ITEM: TIMESTEP
1080
ITEM: NUMBER OF NODES
16
ITEM: BOX BOUNDS
-0.0323169 323.134
-0.00821494 82.1412
0 78.6006
ITEM: NODES
1 1 -0.0323169 -0.00821494 0
2 1 162.342 -0.00821494 0
3 1 162.342 82.1412 0
4 1 -0.0323169 82.1412 0
5 1 -0.0323169 -0.00821494 78.6006
6 1 162.342 -0.00821494 78.6006
7 1 162.342 82.1412 78.6006
8 1 -0.0323169 82.1412 78.6006
9 1 162.342 -0.00821494 0
10 1 323.134 -0.00821494 0
11 1 323.134 82.1412 0
12 1 162.342 82.1412 0
13 1 162.342 -0.00821494 78.6006
14 1 323.134 -0.00821494 78.6006
15 1 323.134 82.1412 78.6006
16 1 162.342 82.1412 78.6006
ITEM: TIMESTEP
1080
ITEM: NUMBER OF CUBES
2
ITEM: CUBES
1 1 1 2 3 4 5 6 7 8
2 1 9 10 11 12 13 14 15 16
ITEM: TIMESTEP
1110
ITEM: NUMBER OF NODES
16
ITEM: BOX BOUNDS
-0.0323169 323.134
-0.00821494 82.1412
0 78.6006
ITEM: NODES
1 1 -0.0323169 -0.00821494 0
2 1 162.342 -0.00821494 0
3 1 162.342 82.1412 0
4 1 -0.0323169 82.1412 0
5 1 -0.0323169 -0.00821494 78.6006
6 1 162.342 -0.00821494 78.6006
7 1 162.342 82.1412 78.6006
8 1 -0.0323169 82.1412 78.6006
9 1 162.342 -0.00821494 0
10 1 323.134 -0.00821494 0
11 1 323.134 82.1412 0
12 1 162.342 82.1412 0
13 1 162.342 -0.00821494 78.6006
14 1 323.134 -0.00821494 78.6006
15 1 323.134 82.1412 78.6006
16 1 162.342 82.1412 78.6006
ITEM: TIMESTEP
1110
ITEM: NUMBER OF CUBES
2
ITEM: CUBES
1 1 1 2 3 4 5 6 7 8
2 1 9 10 11 12 13 14 15 16
ITEM: TIMESTEP
1140
ITEM: NUMBER OF NODES
16
ITEM: BOX BOUNDS
-0.0323169 323.134
-0.00821494 82.1412
0 78.6006
ITEM: NODES
1 1 -0.0323169 -0.00821494 0
2 1 162.34 -0.00821494 0
3 1 162.34 82.1412 0
4 1 -0.0323169 82.1412 0
5 1 -0.0323169 -0.00821494 78.6006
6 1 162.34 -0.00821494 78.6006
7 1 162.34 82.1412 78.6006
8 1 -0.0323169 82.1412 78.6006
9 1 162.34 -0.00821494 0
10 1 323.134 -0.00821494 0
11 1 323.134 82.1412 0
12 1 162.34 82.1412 0
13 1 162.34 -0.00821494 78.6006
14 1 323.134 -0.00821494 78.6006
15 1 323.134 82.1412 78.6006
16 1 162.34 82.1412 78.6006
ITEM: TIMESTEP
1140
ITEM: NUMBER OF CUBES
2
ITEM: CUBES
1 1 1 2 3 4 5 6 7 8
2 1 9 10 11 12 13 14 15 16
ITEM: TIMESTEP
1170
ITEM: NUMBER OF NODES
16
ITEM: BOX BOUNDS
-0.0323169 323.134
-0.00821494 82.1412
0 78.6006
ITEM: NODES
1 1 -0.0323169 -0.00821494 0
2 1 162.348 -0.00821494 0
3 1 162.348 82.1412 0
4 1 -0.0323169 82.1412 0
5 1 -0.0323169 -0.00821494 78.6006
6 1 162.348 -0.00821494 78.6006
7 1 162.348 82.1412 78.6006
8 1 -0.0323169 82.1412 78.6006
9 1 162.348 -0.00821494 0
10 1 323.134 -0.00821494 0
11 1 323.134 82.1412 0
12 1 162.348 82.1412 0
13 1 162.348 -0.00821494 78.6006
14 1 323.134 -0.00821494 78.6006
15 1 323.134 82.1412 78.6006
16 1 162.348 82.1412 78.6006
ITEM: TIMESTEP
1170
ITEM: NUMBER OF CUBES
2
ITEM: CUBES
1 1 1 2 3 4 5 6 7 8
2 1 9 10 11 12 13 14 15 16
ITEM: TIMESTEP
1200
ITEM: NUMBER OF NODES
16
ITEM: BOX BOUNDS
-0.0323169 323.134
-0.00821494 82.1412
0 78.6006
ITEM: NODES
1 1 -0.0323169 -0.00821494 0
2 1 162.345 -0.00821494 0
3 1 162.345 82.1412 0
4 1 -0.0323169 82.1412 0
5 1 -0.0323169 -0.00821494 78.6006
6 1 162.345 -0.00821494 78.6006
7 1 162.345 82.1412 78.6006
8 1 -0.0323169 82.1412 78.6006
9 1 162.345 -0.00821494 0
10 1 323.134 -0.00821494 0
11 1 323.134 82.1412 0
12 1 162.345 82.1412 0
13 1 162.345 -0.00821494 78.6006
14 1 323.134 -0.00821494 78.6006
15 1 323.134 82.1412 78.6006
16 1 162.345 82.1412 78.6006
ITEM: TIMESTEP
1200
ITEM: NUMBER OF CUBES
2
ITEM: CUBES
1 1 1 2 3 4 5 6 7 8
2 1 9 10 11 12 13 14 15 16
ITEM: TIMESTEP
1230
ITEM: NUMBER OF NODES
16
ITEM: BOX BOUNDS
-0.0323169 323.134
-0.00821494 82.1412
0 78.6006
ITEM: NODES
1 1 -0.0323169 -0.00821494 0
2 1 162.361 -0.00821494 0
3 1 162.361 82.1412 0
4 1 -0.0323169 82.1412 0
5 1 -0.0323169 -0.00821494 78.6006
6 1 162.361 -0.00821494 78.6006
7 1 162.361 82.1412 78.6006
8 1 -0.0323169 82.1412 78.6006
9 1 162.361 -0.00821494 0
10 1 323.134 -0.00821494 0
11 1 323.134 82.1412 0
12 1 162.361 82.1412 0
13 1 162.361 -0.00821494 78.6006
14 1 323.134 -0.00821494 78.6006
15 1 323.134 82.1412 78.6006
16 1 162.361 82.1412 78.6006
ITEM: TIMESTEP
1230
ITEM: NUMBER OF CUBES
2
ITEM: CUBES
1 1 1 2 3 4 5 6 7 8
2 1 9 10 11 12 13 14 15 16
ITEM: TIMESTEP
1260
ITEM: NUMBER OF NODES
16
ITEM: BOX BOUNDS
-0.0323169 323.134
-0.00821494 82.1412
0 78.6006
ITEM: NODES
1 1 -0.0323169 -0.00821494 0
2 1 162.374 -0.00821494 0
3 1 162.374 82.1412 0
4 1 -0.0323169 82.1412 0
5 1 -0.0323169 -0.00821494 78.6006
6 1 162.374 -0.00821494 78.6006
7 1 162.374 82.1412 78.6006
8 1 -0.0323169 82.1412 78.6006
9 1 162.374 -0.00821494 0
10 1 323.134 -0.00821494 0
11 1 323.134 82.1412 0
12 1 162.374 82.1412 0
13 1 162.374 -0.00821494 78.6006
14 1 323.134 -0.00821494 78.6006
15 1 323.134 82.1412 78.6006
16 1 162.374 82.1412 78.6006
ITEM: TIMESTEP
1260
ITEM: NUMBER OF CUBES
2
ITEM: CUBES
1 1 1 2 3 4 5 6 7 8
2 1 9 10 11 12 13 14 15 16
ITEM: TIMESTEP
1290
ITEM: NUMBER OF NODES
16
ITEM: BOX BOUNDS
-0.0323169 323.134
-0.00821494 82.1412
0 78.6006
ITEM: NODES
1 1 -0.0323169 -0.00821494 0
2 1 162.379 -0.00821494 0
3 1 162.379 82.1412 0
4 1 -0.0323169 82.1412 0
5 1 -0.0323169 -0.00821494 78.6006
6 1 162.379 -0.00821494 78.6006
7 1 162.379 82.1412 78.6006
8 1 -0.0323169 82.1412 78.6006
9 1 162.379 -0.00821494 0
10 1 323.134 -0.00821494 0
11 1 323.134 82.1412 0
12 1 162.379 82.1412 0
13 1 162.379 -0.00821494 78.6006
14 1 323.134 -0.00821494 78.6006
15 1 323.134 82.1412 78.6006
16 1 162.379 82.1412 78.6006
ITEM: TIMESTEP
1290
ITEM: NUMBER OF CUBES
2
ITEM: CUBES
1 1 1 2 3 4 5 6 7 8
2 1 9 10 11 12 13 14 15 16
ITEM: TIMESTEP
1320
ITEM: NUMBER OF NODES
16
ITEM: BOX BOUNDS
-0.0323169 323.134
-0.00821494 82.1412
0 78.6006
ITEM: NODES
1 1 -0.0323169 -0.00821494 0
2 1 162.395 -0.00821494 0
3 1 162.395 82.1412 0
4 1 -0.0323169 82.1412 0
5 1 -0.0323169 -0.00821494 78.6006
6 1 162.395 -0.00821494 78.6006
7 1 162.395 82.1412 78.6006